+ 0 0 6 tcp 40 ------- 0 0.0 16.0 0 0
- 0 0 6 tcp 40 ------- 0 0.0 16.0 0 0
+ 0 1 6 tcp 40 ------- 0 1.0 17.0 0 1
- 0 1 6 tcp 40 ------- 0 1.0 17.0 0 1
+ 0 2 6 tcp 40 ------- 0 2.0 18.0 0 2
- 0 2 6 tcp 40 ------- 0 2.0 18.0 0 2
+ 0 3 6 tcp 40 ------- 0 3.0 19.0 0 3
- 0 3 6 tcp 40 ------- 0 3.0 19.0 0 3
+ 0 4 6 tcp 40 ------- 0 4.0 20.0 0 4
- 0 4 6 tcp 40 ------- 0 4.0 20.0 0 4
+ 0 5 6 tcp 40 ------- 0 5.0 21.0 0 5
- 0 5 6 tcp 40 ------- 0 5.0 21.0 0 5
+ 0 7 12 cbr 1000 ------- 0 7.0 23.0 0 6
- 0 7 12 cbr 1000 ------- 0 7.0 23.0 0 6
+ 0 8 12 cbr 1000 ------- 0 8.0 24.0 0 7
- 0 8 12 cbr 1000 ------- 0 8.0 24.0 0 7
+ 0 9 12 cbr 1000 ------- 0 9.0 25.0 0 8
- 0 9 12 cbr 1000 ------- 0 9.0 25.0 0 8
+ 0 10 12 cbr 1000 ------- 0 10.0 26.0 0 9
- 0 10 12 cbr 1000 ------- 0 10.0 26.0 0 9
+ 0 11 12 cbr 1000 ------- 0 11.0 27.0 0 10
- 0 11 12 cbr 1000 ------- 0 11.0 27.0 0 10
+ 0.005 7 12 cbr 1000 ------- 0 7.0 23.0 1 11
- 0.005 7 12 cbr 1000 ------- 0 7.0 23.0 1 11
+ 0.005 8 12 cbr 1000 ------- 0 8.0 24.0 1 12
- 0.005 8 12 cbr 1000 ------- 0 8.0 24.0 1 12
+ 0.005 9 12 cbr 1000 ------- 0 9.0 25.0 1 13
- 0.005 9 12 cbr 1000 ------- 0 9.0 25.0 1 13
+ 0.005 10 12 cbr 1000 ------- 0 10.0 26.0 1 14
- 0.005 10 12 cbr 1000 ------- 0 10.0 26.0 1 14
+ 0.005 11 12 cbr 1000 ------- 0 11.0 27.0 1 15
- 0.005 11 12 cbr 1000 ------- 0 11.0 27.0 1 15
+ 0.01 7 12 cbr 1000 ------- 0 7.0 23.0 2 16
- 0.01 7 12 cbr 1000 ------- 0 7.0 23.0 2 16
+ 0.01 8 12 cbr 1000 ------- 0 8.0 24.0 2 17
- 0.01 8 12 cbr 1000 ------- 0 8.0 24.0 2 17
+ 0.01 9 12 cbr 1000 ------- 0 9.0 25.0 2 18
- 0.01 9 12 cbr 1000 ------- 0 9.0 25.0 2 18
+ 0.01 10 12 cbr 1000 ------- 0 10.0 26.0 2 19
- 0.01 10 12 cbr 1000 ------- 0 10.0 26.0 2 19
+ 0.01 11 12 cbr 1000 ------- 0 11.0 27.0 2 20
- 0.01 11 12 cbr 1000 ------- 0 11.0 27.0 2 20
r 0.010003 0 6 tcp 40 ------- 0 0.0 16.0 0 0
+ 0.010003 6 13 tcp 40 ------- 0 0.0 16.0 0 0
- 0.010003 6 13 tcp 40 ------- 0 0.0 16.0 0 0
r 0.010003 1 6 tcp 40 ------- 0 1.0 17.0 0 1
+ 0.010003 6 13 tcp 40 ------- 0 1.0 17.0 0 1
r 0.010003 2 6 tcp 40 ------- 0 2.0 18.0 0 2
+ 0.010003 6 13 tcp 40 ------- 0 2.0 18.0 0 2
r 0.010003 3 6 tcp 40 ------- 0 3.0 19.0 0 3
+ 0.010003 6 13 tcp 40 ------- 0 3.0 19.0 0 3
r 0.010003 4 6 tcp 40 ------- 0 4.0 20.0 0 4
+ 0.010003 6 13 tcp 40 ------- 0 4.0 20.0 0 4
r 0.010003 5 6 tcp 40 ------- 0 5.0 21.0 0 5
+ 0.010003 6 13 tcp 40 ------- 0 5.0 21.0 0 5
- 0.010006 6 13 tcp 40 ------- 0 1.0 17.0 0 1
- 0.01001 6 13 tcp 40 ------- 0 2.0 18.0 0 2
- 0.010013 6 13 tcp 40 ------- 0 3.0 19.0 0 3
- 0.010016 6 13 tcp 40 ------- 0 4.0 20.0 0 4
- 0.010019 6 13 tcp 40 ------- 0 5.0 21.0 0 5
r 0.01008 7 12 cbr 1000 ------- 0 7.0 23.0 0 6
+ 0.01008 12 13 cbr 1000 ------- 0 7.0 23.0 0 6
- 0.01008 12 13 cbr 1000 ------- 0 7.0 23.0 0 6
r 0.01008 8 12 cbr 1000 ------- 0 8.0 24.0 0 7
+ 0.01008 12 13 cbr 1000 ------- 0 8.0 24.0 0 7
r 0.01008 9 12 cbr 1000 ------- 0 9.0 25.0 0 8
+ 0.01008 12 13 cbr 1000 ------- 0 9.0 25.0 0 8
r 0.01008 10 12 cbr 1000 ------- 0 10.0 26.0 0 9
+ 0.01008 12 13 cbr 1000 ------- 0 10.0 26.0 0 9
r 0.01008 11 12 cbr 1000 ------- 0 11.0 27.0 0 10
+ 0.01008 12 13 cbr 1000 ------- 0 11.0 27.0 0 10
- 0.01016 12 13 cbr 1000 ------- 0 8.0 24.0 0 7
- 0.01024 12 13 cbr 1000 ------- 0 9.0 25.0 0 8
- 0.01032 12 13 cbr 1000 ------- 0 10.0 26.0 0 9
- 0.0104 12 13 cbr 1000 ------- 0 11.0 27.0 0 10
+ 0.015 7 12 cbr 1000 ------- 0 7.0 23.0 3 21
- 0.015 7 12 cbr 1000 ------- 0 7.0 23.0 3 21
+ 0.015 8 12 cbr 1000 ------- 0 8.0 24.0 3 22
- 0.015 8 12 cbr 1000 ------- 0 8.0 24.0 3 22
+ 0.015 9 12 cbr 1000 ------- 0 9.0 25.0 3 23
- 0.015 9 12 cbr 1000 ------- 0 9.0 25.0 3 23
+ 0.015 10 12 cbr 1000 ------- 0 10.0 26.0 3 24
- 0.015 10 12 cbr 1000 ------- 0 10.0 26.0 3 24
+ 0.015 11 12 cbr 1000 ------- 0 11.0 27.0 3 25
- 0.015 11 12 cbr 1000 ------- 0 11.0 27.0 3 25
r 0.01508 7 12 cbr 1000 ------- 0 7.0 23.0 1 11
+ 0.01508 12 13 cbr 1000 ------- 0 7.0 23.0 1 11
- 0.01508 12 13 cbr 1000 ------- 0 7.0 23.0 1 11
r 0.01508 8 12 cbr 1000 ------- 0 8.0 24.0 1 12
+ 0.01508 12 13 cbr 1000 ------- 0 8.0 24.0 1 12
r 0.01508 9 12 cbr 1000 ------- 0 9.0 25.0 1 13
+ 0.01508 12 13 cbr 1000 ------- 0 9.0 25.0 1 13
r 0.01508 10 12 cbr 1000 ------- 0 10.0 26.0 1 14
+ 0.01508 12 13 cbr 1000 ------- 0 10.0 26.0 1 14
r 0.01508 11 12 cbr 1000 ------- 0 11.0 27.0 1 15
+ 0.01508 12 13 cbr 1000 ------- 0 11.0 27.0 1 15
- 0.01516 12 13 cbr 1000 ------- 0 8.0 24.0 1 12
- 0.01524 12 13 cbr 1000 ------- 0 9.0 25.0 1 13
- 0.01532 12 13 cbr 1000 ------- 0 10.0 26.0 1 14
- 0.0154 12 13 cbr 1000 ------- 0 11.0 27.0 1 15
+ 0.02 7 12 cbr 1000 ------- 0 7.0 23.0 4 26
- 0.02 7 12 cbr 1000 ------- 0 7.0 23.0 4 26
+ 0.02 8 12 cbr 1000 ------- 0 8.0 24.0 4 27
- 0.02 8 12 cbr 1000 ------- 0 8.0 24.0 4 27
+ 0.02 9 12 cbr 1000 ------- 0 9.0 25.0 4 28
- 0.02 9 12 cbr 1000 ------- 0 9.0 25.0 4 28
+ 0.02 10 12 cbr 1000 ------- 0 10.0 26.0 4 29
- 0.02 10 12 cbr 1000 ------- 0 10.0 26.0 4 29
+ 0.02 11 12 cbr 1000 ------- 0 11.0 27.0 4 30
- 0.02 11 12 cbr 1000 ------- 0 11.0 27.0 4 30
r 0.020006 6 13 tcp 40 ------- 0 0.0 16.0 0 0
+ 0.020006 13 14 tcp 40 ------- 0 0.0 16.0 0 0
- 0.020006 13 14 tcp 40 ------- 0 0.0 16.0 0 0
r 0.02001 6 13 tcp 40 ------- 0 1.0 17.0 0 1
+ 0.02001 13 14 tcp 40 ------- 0 1.0 17.0 0 1
r 0.020013 6 13 tcp 40 ------- 0 2.0 18.0 0 2
+ 0.020013 13 14 tcp 40 ------- 0 2.0 18.0 0 2
r 0.020016 6 13 tcp 40 ------- 0 3.0 19.0 0 3
+ 0.020016 13 14 tcp 40 ------- 0 3.0 19.0 0 3
r 0.020019 6 13 tcp 40 ------- 0 4.0 20.0 0 4
+ 0.020019 13 14 tcp 40 ------- 0 4.0 20.0 0 4
r 0.020022 6 13 tcp 40 ------- 0 5.0 21.0 0 5
+ 0.020022 13 14 tcp 40 ------- 0 5.0 21.0 0 5
- 0.020038 13 14 tcp 40 ------- 0 1.0 17.0 0 1
- 0.02007 13 14 tcp 40 ------- 0 2.0 18.0 0 2
r 0.02008 7 12 cbr 1000 ------- 0 7.0 23.0 2 16
+ 0.02008 12 13 cbr 1000 ------- 0 7.0 23.0 2 16
- 0.02008 12 13 cbr 1000 ------- 0 7.0 23.0 2 16
r 0.02008 8 12 cbr 1000 ------- 0 8.0 24.0 2 17
+ 0.02008 12 13 cbr 1000 ------- 0 8.0 24.0 2 17
r 0.02008 9 12 cbr 1000 ------- 0 9.0 25.0 2 18
+ 0.02008 12 13 cbr 1000 ------- 0 9.0 25.0 2 18
r 0.02008 10 12 cbr 1000 ------- 0 10.0 26.0 2 19
+ 0.02008 12 13 cbr 1000 ------- 0 10.0 26.0 2 19
r 0.02008 11 12 cbr 1000 ------- 0 11.0 27.0 2 20
+ 0.02008 12 13 cbr 1000 ------- 0 11.0 27.0 2 20
- 0.020102 13 14 tcp 40 ------- 0 3.0 19.0 0 3
- 0.020134 13 14 tcp 40 ------- 0 4.0 20.0 0 4
r 0.02016 12 13 cbr 1000 ------- 0 7.0 23.0 0 6
+ 0.02016 13 14 cbr 1000 ------- 0 7.0 23.0 0 6
- 0.02016 12 13 cbr 1000 ------- 0 8.0 24.0 2 17
- 0.020166 13 14 tcp 40 ------- 0 5.0 21.0 0 5
- 0.020198 13 14 cbr 1000 ------- 0 7.0 23.0 0 6
r 0.02024 12 13 cbr 1000 ------- 0 8.0 24.0 0 7
+ 0.02024 13 14 cbr 1000 ------- 0 8.0 24.0 0 7
- 0.02024 12 13 cbr 1000 ------- 0 9.0 25.0 2 18
r 0.02032 12 13 cbr 1000 ------- 0 9.0 25.0 0 8
+ 0.02032 13 14 cbr 1000 ------- 0 9.0 25.0 0 8
- 0.02032 12 13 cbr 1000 ------- 0 10.0 26.0 2 19
r 0.0204 12 13 cbr 1000 ------- 0 10.0 26.0 0 9
+ 0.0204 13 14 cbr 1000 ------- 0 10.0 26.0 0 9
- 0.0204 12 13 cbr 1000 ------- 0 11.0 27.0 2 20
r 0.02048 12 13 cbr 1000 ------- 0 11.0 27.0 0 10
+ 0.02048 13 14 cbr 1000 ------- 0 11.0 27.0 0 10
- 0.020998 13 14 cbr 1000 ------- 0 8.0 24.0 0 7
- 0.021798 13 14 cbr 1000 ------- 0 9.0 25.0 0 8
- 0.022598 13 14 cbr 1000 ------- 0 10.0 26.0 0 9
- 0.023398 13 14 cbr 1000 ------- 0 11.0 27.0 0 10
r 0.02508 7 12 cbr 1000 ------- 0 7.0 23.0 3 21
+ 0.02508 12 13 cbr 1000 ------- 0 7.0 23.0 3 21
- 0.02508 12 13 cbr 1000 ------- 0 7.0 23.0 3 21
r 0.02508 8 12 cbr 1000 ------- 0 8.0 24.0 3 22
+ 0.02508 12 13 cbr 1000 ------- 0 8.0 24.0 3 22
r 0.02508 9 12 cbr 1000 ------- 0 9.0 25.0 3 23
+ 0.02508 12 13 cbr 1000 ------- 0 9.0 25.0 3 23
r 0.02508 10 12 cbr 1000 ------- 0 10.0 26.0 3 24
+ 0.02508 12 13 cbr 1000 ------- 0 10.0 26.0 3 24
r 0.02508 11 12 cbr 1000 ------- 0 11.0 27.0 3 25
+ 0.02508 12 13 cbr 1000 ------- 0 11.0 27.0 3 25
- 0.02516 12 13 cbr 1000 ------- 0 8.0 24.0 3 22
r 0.02516 12 13 cbr 1000 ------- 0 7.0 23.0 1 11
+ 0.02516 13 14 cbr 1000 ------- 0 7.0 23.0 1 11
- 0.02516 13 14 cbr 1000 ------- 0 7.0 23.0 1 11
r 0.02524 12 13 cbr 1000 ------- 0 8.0 24.0 1 12
+ 0.02524 13 14 cbr 1000 ------- 0 8.0 24.0 1 12
- 0.02524 12 13 cbr 1000 ------- 0 9.0 25.0 3 23
- 0.02532 12 13 cbr 1000 ------- 0 10.0 26.0 3 24
r 0.02532 12 13 cbr 1000 ------- 0 9.0 25.0 1 13
+ 0.02532 13 14 cbr 1000 ------- 0 9.0 25.0 1 13
r 0.0254 12 13 cbr 1000 ------- 0 10.0 26.0 1 14
+ 0.0254 13 14 cbr 1000 ------- 0 10.0 26.0 1 14
- 0.0254 12 13 cbr 1000 ------- 0 11.0 27.0 3 25
r 0.02548 12 13 cbr 1000 ------- 0 11.0 27.0 1 15
+ 0.02548 13 14 cbr 1000 ------- 0 11.0 27.0 1 15
- 0.02596 13 14 cbr 1000 ------- 0 8.0 24.0 1 12
- 0.02676 13 14 cbr 1000 ------- 0 9.0 25.0 1 13
- 0.02756 13 14 cbr 1000 ------- 0 10.0 26.0 1 14
- 0.02836 13 14 cbr 1000 ------- 0 11.0 27.0 1 15
r 0.030038 13 14 tcp 40 ------- 0 0.0 16.0 0 0
+ 0.030038 14 15 tcp 40 ------- 0 0.0 16.0 0 0
- 0.030038 14 15 tcp 40 ------- 0 0.0 16.0 0 0
r 0.03007 13 14 tcp 40 ------- 0 1.0 17.0 0 1
+ 0.03007 14 15 tcp 40 ------- 0 1.0 17.0 0 1
- 0.03007 14 15 tcp 40 ------- 0 1.0 17.0 0 1
r 0.03008 7 12 cbr 1000 ------- 0 7.0 23.0 4 26
+ 0.03008 12 13 cbr 1000 ------- 0 7.0 23.0 4 26
- 0.03008 12 13 cbr 1000 ------- 0 7.0 23.0 4 26
r 0.03008 8 12 cbr 1000 ------- 0 8.0 24.0 4 27
+ 0.03008 12 13 cbr 1000 ------- 0 8.0 24.0 4 27
r 0.03008 9 12 cbr 1000 ------- 0 9.0 25.0 4 28
+ 0.03008 12 13 cbr 1000 ------- 0 9.0 25.0 4 28
r 0.03008 10 12 cbr 1000 ------- 0 10.0 26.0 4 29
+ 0.03008 12 13 cbr 1000 ------- 0 10.0 26.0 4 29
r 0.03008 11 12 cbr 1000 ------- 0 11.0 27.0 4 30
+ 0.03008 12 13 cbr 1000 ------- 0 11.0 27.0 4 30
r 0.030102 13 14 tcp 40 ------- 0 2.0 18.0 0 2
+ 0.030102 14 15 tcp 40 ------- 0 2.0 18.0 0 2
- 0.030102 14 15 tcp 40 ------- 0 2.0 18.0 0 2
r 0.030134 13 14 tcp 40 ------- 0 3.0 19.0 0 3
+ 0.030134 14 15 tcp 40 ------- 0 3.0 19.0 0 3
- 0.030134 14 15 tcp 40 ------- 0 3.0 19.0 0 3
r 0.03016 12 13 cbr 1000 ------- 0 7.0 23.0 2 16
+ 0.03016 13 14 cbr 1000 ------- 0 7.0 23.0 2 16
- 0.03016 13 14 cbr 1000 ------- 0 7.0 23.0 2 16
- 0.03016 12 13 cbr 1000 ------- 0 8.0 24.0 4 27
r 0.030166 13 14 tcp 40 ------- 0 4.0 20.0 0 4
+ 0.030166 14 15 tcp 40 ------- 0 4.0 20.0 0 4
- 0.030166 14 15 tcp 40 ------- 0 4.0 20.0 0 4
r 0.030198 13 14 tcp 40 ------- 0 5.0 21.0 0 5
+ 0.030198 14 15 tcp 40 ------- 0 5.0 21.0 0 5
- 0.030198 14 15 tcp 40 ------- 0 5.0 21.0 0 5
r 0.03024 12 13 cbr 1000 ------- 0 8.0 24.0 2 17
+ 0.03024 13 14 cbr 1000 ------- 0 8.0 24.0 2 17
- 0.03024 12 13 cbr 1000 ------- 0 9.0 25.0 4 28
r 0.03032 12 13 cbr 1000 ------- 0 9.0 25.0 2 18
+ 0.03032 13 14 cbr 1000 ------- 0 9.0 25.0 2 18
- 0.03032 12 13 cbr 1000 ------- 0 10.0 26.0 4 29
r 0.0304 12 13 cbr 1000 ------- 0 10.0 26.0 2 19
+ 0.0304 13 14 cbr 1000 ------- 0 10.0 26.0 2 19
- 0.0304 12 13 cbr 1000 ------- 0 11.0 27.0 4 30
r 0.03048 12 13 cbr 1000 ------- 0 11.0 27.0 2 20
+ 0.03048 13 14 cbr 1000 ------- 0 11.0 27.0 2 20
- 0.03096 13 14 cbr 1000 ------- 0 8.0 24.0 2 17
r 0.030998 13 14 cbr 1000 ------- 0 7.0 23.0 0 6
+ 0.030998 14 22 cbr 1000 ------- 0 7.0 23.0 0 6
- 0.030998 14 22 cbr 1000 ------- 0 7.0 23.0 0 6
- 0.03176 13 14 cbr 1000 ------- 0 9.0 25.0 2 18
r 0.031798 13 14 cbr 1000 ------- 0 8.0 24.0 0 7
+ 0.031798 14 22 cbr 1000 ------- 0 8.0 24.0 0 7
- 0.031798 14 22 cbr 1000 ------- 0 8.0 24.0 0 7
- 0.03256 13 14 cbr 1000 ------- 0 10.0 26.0 2 19
r 0.032598 13 14 cbr 1000 ------- 0 9.0 25.0 0 8
+ 0.032598 14 22 cbr 1000 ------- 0 9.0 25.0 0 8
- 0.032598 14 22 cbr 1000 ------- 0 9.0 25.0 0 8
- 0.03336 13 14 cbr 1000 ------- 0 11.0 27.0 2 20
r 0.033398 13 14 cbr 1000 ------- 0 10.0 26.0 0 9
+ 0.033398 14 22 cbr 1000 ------- 0 10.0 26.0 0 9
- 0.033398 14 22 cbr 1000 ------- 0 10.0 26.0 0 9
r 0.034198 13 14 cbr 1000 ------- 0 11.0 27.0 0 10
+ 0.034198 14 22 cbr 1000 ------- 0 11.0 27.0 0 10
- 0.034198 14 22 cbr 1000 ------- 0 11.0 27.0 0 10
r 0.03516 12 13 cbr 1000 ------- 0 7.0 23.0 3 21
+ 0.03516 13 14 cbr 1000 ------- 0 7.0 23.0 3 21
- 0.03516 13 14 cbr 1000 ------- 0 7.0 23.0 3 21
r 0.03524 12 13 cbr 1000 ------- 0 8.0 24.0 3 22
+ 0.03524 13 14 cbr 1000 ------- 0 8.0 24.0 3 22
r 0.03532 12 13 cbr 1000 ------- 0 9.0 25.0 3 23
+ 0.03532 13 14 cbr 1000 ------- 0 9.0 25.0 3 23
r 0.0354 12 13 cbr 1000 ------- 0 10.0 26.0 3 24
+ 0.0354 13 14 cbr 1000 ------- 0 10.0 26.0 3 24
r 0.03548 12 13 cbr 1000 ------- 0 11.0 27.0 3 25
+ 0.03548 13 14 cbr 1000 ------- 0 11.0 27.0 3 25
- 0.03596 13 14 cbr 1000 ------- 0 8.0 24.0 3 22
r 0.03596 13 14 cbr 1000 ------- 0 7.0 23.0 1 11
+ 0.03596 14 22 cbr 1000 ------- 0 7.0 23.0 1 11
- 0.03596 14 22 cbr 1000 ------- 0 7.0 23.0 1 11
r 0.03676 13 14 cbr 1000 ------- 0 8.0 24.0 1 12
+ 0.03676 14 22 cbr 1000 ------- 0 8.0 24.0 1 12
- 0.03676 14 22 cbr 1000 ------- 0 8.0 24.0 1 12
- 0.03676 13 14 cbr 1000 ------- 0 9.0 25.0 3 23
r 0.03756 13 14 cbr 1000 ------- 0 9.0 25.0 1 13
+ 0.03756 14 22 cbr 1000 ------- 0 9.0 25.0 1 13
- 0.03756 14 22 cbr 1000 ------- 0 9.0 25.0 1 13
- 0.03756 13 14 cbr 1000 ------- 0 10.0 26.0 3 24
r 0.03836 13 14 cbr 1000 ------- 0 10.0 26.0 1 14
+ 0.03836 14 22 cbr 1000 ------- 0 10.0 26.0 1 14
- 0.03836 14 22 cbr 1000 ------- 0 10.0 26.0 1 14
- 0.03836 13 14 cbr 1000 ------- 0 11.0 27.0 3 25
r 0.03916 13 14 cbr 1000 ------- 0 11.0 27.0 1 15
+ 0.03916 14 22 cbr 1000 ------- 0 11.0 27.0 1 15
- 0.03916 14 22 cbr 1000 ------- 0 11.0 27.0 1 15
r 0.040042 14 15 tcp 40 ------- 0 0.0 16.0 0 0
+ 0.040042 15 16 tcp 40 ------- 0 0.0 16.0 0 0
- 0.040042 15 16 tcp 40 ------- 0 0.0 16.0 0 0
r 0.040074 14 15 tcp 40 ------- 0 1.0 17.0 0 1
+ 0.040074 15 17 tcp 40 ------- 0 1.0 17.0 0 1
- 0.040074 15 17 tcp 40 ------- 0 1.0 17.0 0 1
r 0.040106 14 15 tcp 40 ------- 0 2.0 18.0 0 2
+ 0.040106 15 18 tcp 40 ------- 0 2.0 18.0 0 2
- 0.040106 15 18 tcp 40 ------- 0 2.0 18.0 0 2
r 0.040138 14 15 tcp 40 ------- 0 3.0 19.0 0 3
+ 0.040138 15 19 tcp 40 ------- 0 3.0 19.0 0 3
- 0.040138 15 19 tcp 40 ------- 0 3.0 19.0 0 3
r 0.04016 12 13 cbr 1000 ------- 0 7.0 23.0 4 26
+ 0.04016 13 14 cbr 1000 ------- 0 7.0 23.0 4 26
- 0.04016 13 14 cbr 1000 ------- 0 7.0 23.0 4 26
r 0.04017 14 15 tcp 40 ------- 0 4.0 20.0 0 4
+ 0.04017 15 20 tcp 40 ------- 0 4.0 20.0 0 4
- 0.04017 15 20 tcp 40 ------- 0 4.0 20.0 0 4
r 0.040202 14 15 tcp 40 ------- 0 5.0 21.0 0 5
+ 0.040202 15 21 tcp 40 ------- 0 5.0 21.0 0 5
- 0.040202 15 21 tcp 40 ------- 0 5.0 21.0 0 5
r 0.04024 12 13 cbr 1000 ------- 0 8.0 24.0 4 27
+ 0.04024 13 14 cbr 1000 ------- 0 8.0 24.0 4 27
r 0.04032 12 13 cbr 1000 ------- 0 9.0 25.0 4 28
+ 0.04032 13 14 cbr 1000 ------- 0 9.0 25.0 4 28
r 0.0404 12 13 cbr 1000 ------- 0 10.0 26.0 4 29
+ 0.0404 13 14 cbr 1000 ------- 0 10.0 26.0 4 29
r 0.04048 12 13 cbr 1000 ------- 0 11.0 27.0 4 30
+ 0.04048 13 14 cbr 1000 ------- 0 11.0 27.0 4 30
r 0.04096 13 14 cbr 1000 ------- 0 7.0 23.0 2 16
+ 0.04096 14 22 cbr 1000 ------- 0 7.0 23.0 2 16
- 0.04096 14 22 cbr 1000 ------- 0 7.0 23.0 2 16
- 0.04096 13 14 cbr 1000 ------- 0 8.0 24.0 4 27
r 0.041078 14 22 cbr 1000 ------- 0 7.0 23.0 0 6
+ 0.041078 22 23 cbr 1000 ------- 0 7.0 23.0 0 6
- 0.041078 22 23 cbr 1000 ------- 0 7.0 23.0 0 6
r 0.04176 13 14 cbr 1000 ------- 0 8.0 24.0 2 17
+ 0.04176 14 22 cbr 1000 ------- 0 8.0 24.0 2 17
- 0.04176 14 22 cbr 1000 ------- 0 8.0 24.0 2 17
- 0.04176 13 14 cbr 1000 ------- 0 9.0 25.0 4 28
r 0.041878 14 22 cbr 1000 ------- 0 8.0 24.0 0 7
+ 0.041878 22 24 cbr 1000 ------- 0 8.0 24.0 0 7
- 0.041878 22 24 cbr 1000 ------- 0 8.0 24.0 0 7
r 0.04256 13 14 cbr 1000 ------- 0 9.0 25.0 2 18
+ 0.04256 14 22 cbr 1000 ------- 0 9.0 25.0 2 18
- 0.04256 14 22 cbr 1000 ------- 0 9.0 25.0 2 18
- 0.04256 13 14 cbr 1000 ------- 0 10.0 26.0 4 29
r 0.042678 14 22 cbr 1000 ------- 0 9.0 25.0 0 8
+ 0.042678 22 25 cbr 1000 ------- 0 9.0 25.0 0 8
- 0.042678 22 25 cbr 1000 ------- 0 9.0 25.0 0 8
r 0.04336 13 14 cbr 1000 ------- 0 10.0 26.0 2 19
+ 0.04336 14 22 cbr 1000 ------- 0 10.0 26.0 2 19
- 0.04336 14 22 cbr 1000 ------- 0 10.0 26.0 2 19
- 0.04336 13 14 cbr 1000 ------- 0 11.0 27.0 4 30
r 0.043478 14 22 cbr 1000 ------- 0 10.0 26.0 0 9
+ 0.043478 22 26 cbr 1000 ------- 0 10.0 26.0 0 9
- 0.043478 22 26 cbr 1000 ------- 0 10.0 26.0 0 9
r 0.04416 13 14 cbr 1000 ------- 0 11.0 27.0 2 20
+ 0.04416 14 22 cbr 1000 ------- 0 11.0 27.0 2 20
- 0.04416 14 22 cbr 1000 ------- 0 11.0 27.0 2 20
r 0.044278 14 22 cbr 1000 ------- 0 11.0 27.0 0 10
+ 0.044278 22 27 cbr 1000 ------- 0 11.0 27.0 0 10
- 0.044278 22 27 cbr 1000 ------- 0 11.0 27.0 0 10
r 0.04596 13 14 cbr 1000 ------- 0 7.0 23.0 3 21
+ 0.04596 14 22 cbr 1000 ------- 0 7.0 23.0 3 21
- 0.04596 14 22 cbr 1000 ------- 0 7.0 23.0 3 21
r 0.04604 14 22 cbr 1000 ------- 0 7.0 23.0 1 11
+ 0.04604 22 23 cbr 1000 ------- 0 7.0 23.0 1 11
- 0.04604 22 23 cbr 1000 ------- 0 7.0 23.0 1 11
r 0.04676 13 14 cbr 1000 ------- 0 8.0 24.0 3 22
+ 0.04676 14 22 cbr 1000 ------- 0 8.0 24.0 3 22
- 0.04676 14 22 cbr 1000 ------- 0 8.0 24.0 3 22
r 0.04684 14 22 cbr 1000 ------- 0 8.0 24.0 1 12
+ 0.04684 22 24 cbr 1000 ------- 0 8.0 24.0 1 12
- 0.04684 22 24 cbr 1000 ------- 0 8.0 24.0 1 12
r 0.04756 13 14 cbr 1000 ------- 0 9.0 25.0 3 23
+ 0.04756 14 22 cbr 1000 ------- 0 9.0 25.0 3 23
- 0.04756 14 22 cbr 1000 ------- 0 9.0 25.0 3 23
r 0.04764 14 22 cbr 1000 ------- 0 9.0 25.0 1 13
+ 0.04764 22 25 cbr 1000 ------- 0 9.0 25.0 1 13
- 0.04764 22 25 cbr 1000 ------- 0 9.0 25.0 1 13
r 0.04836 13 14 cbr 1000 ------- 0 10.0 26.0 3 24
+ 0.04836 14 22 cbr 1000 ------- 0 10.0 26.0 3 24
- 0.04836 14 22 cbr 1000 ------- 0 10.0 26.0 3 24
r 0.04844 14 22 cbr 1000 ------- 0 10.0 26.0 1 14
+ 0.04844 22 26 cbr 1000 ------- 0 10.0 26.0 1 14
- 0.04844 22 26 cbr 1000 ------- 0 10.0 26.0 1 14
r 0.04916 13 14 cbr 1000 ------- 0 11.0 27.0 3 25
+ 0.04916 14 22 cbr 1000 ------- 0 11.0 27.0 3 25
- 0.04916 14 22 cbr 1000 ------- 0 11.0 27.0 3 25
r 0.04924 14 22 cbr 1000 ------- 0 11.0 27.0 1 15
+ 0.04924 22 27 cbr 1000 ------- 0 11.0 27.0 1 15
- 0.04924 22 27 cbr 1000 ------- 0 11.0 27.0 1 15
r 0.050045 15 16 tcp 40 ------- 0 0.0 16.0 0 0
+ 0.050045 16 15 ack 5000 ------- 0 16.0 0.0 0 31
- 0.050045 16 15 ack 5000 ------- 0 16.0 0.0 0 31
r 0.050077 15 17 tcp 40 ------- 0 1.0 17.0 0 1
+ 0.050077 17 15 ack 5000 ------- 0 17.0 1.0 0 32
- 0.050077 17 15 ack 5000 ------- 0 17.0 1.0 0 32
r 0.050109 15 18 tcp 40 ------- 0 2.0 18.0 0 2
+ 0.050109 18 15 ack 5000 ------- 0 18.0 2.0 0 33
- 0.050109 18 15 ack 5000 ------- 0 18.0 2.0 0 33
r 0.050141 15 19 tcp 40 ------- 0 3.0 19.0 0 3
+ 0.050141 19 15 ack 5000 ------- 0 19.0 3.0 0 34
- 0.050141 19 15 ack 5000 ------- 0 19.0 3.0 0 34
r 0.050173 15 20 tcp 40 ------- 0 4.0 20.0 0 4
+ 0.050173 20 15 ack 5000 ------- 0 20.0 4.0 0 35
- 0.050173 20 15 ack 5000 ------- 0 20.0 4.0 0 35
r 0.050205 15 21 tcp 40 ------- 0 5.0 21.0 0 5
+ 0.050205 21 15 ack 5000 ------- 0 21.0 5.0 0 36
- 0.050205 21 15 ack 5000 ------- 0 21.0 5.0 0 36
r 0.05096 13 14 cbr 1000 ------- 0 7.0 23.0 4 26
+ 0.05096 14 22 cbr 1000 ------- 0 7.0 23.0 4 26
- 0.05096 14 22 cbr 1000 ------- 0 7.0 23.0 4 26
r 0.05104 14 22 cbr 1000 ------- 0 7.0 23.0 2 16
+ 0.05104 22 23 cbr 1000 ------- 0 7.0 23.0 2 16
- 0.05104 22 23 cbr 1000 ------- 0 7.0 23.0 2 16
r 0.051158 22 23 cbr 1000 ------- 0 7.0 23.0 0 6
r 0.05176 13 14 cbr 1000 ------- 0 8.0 24.0 4 27
+ 0.05176 14 22 cbr 1000 ------- 0 8.0 24.0 4 27
- 0.05176 14 22 cbr 1000 ------- 0 8.0 24.0 4 27
r 0.05184 14 22 cbr 1000 ------- 0 8.0 24.0 2 17
+ 0.05184 22 24 cbr 1000 ------- 0 8.0 24.0 2 17
- 0.05184 22 24 cbr 1000 ------- 0 8.0 24.0 2 17
r 0.051958 22 24 cbr 1000 ------- 0 8.0 24.0 0 7
r 0.05256 13 14 cbr 1000 ------- 0 9.0 25.0 4 28
+ 0.05256 14 22 cbr 1000 ------- 0 9.0 25.0 4 28
- 0.05256 14 22 cbr 1000 ------- 0 9.0 25.0 4 28
r 0.05264 14 22 cbr 1000 ------- 0 9.0 25.0 2 18
+ 0.05264 22 25 cbr 1000 ------- 0 9.0 25.0 2 18
- 0.05264 22 25 cbr 1000 ------- 0 9.0 25.0 2 18
r 0.052758 22 25 cbr 1000 ------- 0 9.0 25.0 0 8
r 0.05336 13 14 cbr 1000 ------- 0 10.0 26.0 4 29
+ 0.05336 14 22 cbr 1000 ------- 0 10.0 26.0 4 29
- 0.05336 14 22 cbr 1000 ------- 0 10.0 26.0 4 29
r 0.05344 14 22 cbr 1000 ------- 0 10.0 26.0 2 19
+ 0.05344 22 26 cbr 1000 ------- 0 10.0 26.0 2 19
- 0.05344 22 26 cbr 1000 ------- 0 10.0 26.0 2 19
r 0.053558 22 26 cbr 1000 ------- 0 10.0 26.0 0 9
r 0.05416 13 14 cbr 1000 ------- 0 11.0 27.0 4 30
+ 0.05416 14 22 cbr 1000 ------- 0 11.0 27.0 4 30
- 0.05416 14 22 cbr 1000 ------- 0 11.0 27.0 4 30
r 0.05424 14 22 cbr 1000 ------- 0 11.0 27.0 2 20
+ 0.05424 22 27 cbr 1000 ------- 0 11.0 27.0 2 20
- 0.05424 22 27 cbr 1000 ------- 0 11.0 27.0 2 20
r 0.054358 22 27 cbr 1000 ------- 0 11.0 27.0 0 10
r 0.05604 14 22 cbr 1000 ------- 0 7.0 23.0 3 21
+ 0.05604 22 23 cbr 1000 ------- 0 7.0 23.0 3 21
- 0.05604 22 23 cbr 1000 ------- 0 7.0 23.0 3 21
r 0.05612 22 23 cbr 1000 ------- 0 7.0 23.0 1 11
r 0.05684 14 22 cbr 1000 ------- 0 8.0 24.0 3 22
+ 0.05684 22 24 cbr 1000 ------- 0 8.0 24.0 3 22
- 0.05684 22 24 cbr 1000 ------- 0 8.0 24.0 3 22
r 0.05692 22 24 cbr 1000 ------- 0 8.0 24.0 1 12
r 0.05764 14 22 cbr 1000 ------- 0 9.0 25.0 3 23
+ 0.05764 22 25 cbr 1000 ------- 0 9.0 25.0 3 23
- 0.05764 22 25 cbr 1000 ------- 0 9.0 25.0 3 23
r 0.05772 22 25 cbr 1000 ------- 0 9.0 25.0 1 13
r 0.05844 14 22 cbr 1000 ------- 0 10.0 26.0 3 24
+ 0.05844 22 26 cbr 1000 ------- 0 10.0 26.0 3 24
- 0.05844 22 26 cbr 1000 ------- 0 10.0 26.0 3 24
r 0.05852 22 26 cbr 1000 ------- 0 10.0 26.0 1 14
r 0.05924 14 22 cbr 1000 ------- 0 11.0 27.0 3 25
+ 0.05924 22 27 cbr 1000 ------- 0 11.0 27.0 3 25
- 0.05924 22 27 cbr 1000 ------- 0 11.0 27.0 3 25
r 0.05932 22 27 cbr 1000 ------- 0 11.0 27.0 1 15
r 0.060445 16 15 ack 5000 ------- 0 16.0 0.0 0 31
+ 0.060445 15 14 ack 5000 ------- 0 16.0 0.0 0 31
- 0.060445 15 14 ack 5000 ------- 0 16.0 0.0 0 31
r 0.060477 17 15 ack 5000 ------- 0 17.0 1.0 0 32
+ 0.060477 15 14 ack 5000 ------- 0 17.0 1.0 0 32
r 0.060509 18 15 ack 5000 ------- 0 18.0 2.0 0 33
+ 0.060509 15 14 ack 5000 ------- 0 18.0 2.0 0 33
r 0.060541 19 15 ack 5000 ------- 0 19.0 3.0 0 34
+ 0.060541 15 14 ack 5000 ------- 0 19.0 3.0 0 34
r 0.060573 20 15 ack 5000 ------- 0 20.0 4.0 0 35
+ 0.060573 15 14 ack 5000 ------- 0 20.0 4.0 0 35
r 0.060605 21 15 ack 5000 ------- 0 21.0 5.0 0 36
+ 0.060605 15 14 ack 5000 ------- 0 21.0 5.0 0 36
- 0.060845 15 14 ack 5000 ------- 0 17.0 1.0 0 32
r 0.06104 14 22 cbr 1000 ------- 0 7.0 23.0 4 26
+ 0.06104 22 23 cbr 1000 ------- 0 7.0 23.0 4 26
- 0.06104 22 23 cbr 1000 ------- 0 7.0 23.0 4 26
r 0.06112 22 23 cbr 1000 ------- 0 7.0 23.0 2 16
- 0.061245 15 14 ack 5000 ------- 0 18.0 2.0 0 33
- 0.061645 15 14 ack 5000 ------- 0 19.0 3.0 0 34
r 0.06184 14 22 cbr 1000 ------- 0 8.0 24.0 4 27
+ 0.06184 22 24 cbr 1000 ------- 0 8.0 24.0 4 27
- 0.06184 22 24 cbr 1000 ------- 0 8.0 24.0 4 27
r 0.06192 22 24 cbr 1000 ------- 0 8.0 24.0 2 17
- 0.062045 15 14 ack 5000 ------- 0 20.0 4.0 0 35
- 0.062445 15 14 ack 5000 ------- 0 21.0 5.0 0 36
r 0.06264 14 22 cbr 1000 ------- 0 9.0 25.0 4 28
+ 0.06264 22 25 cbr 1000 ------- 0 9.0 25.0 4 28
- 0.06264 22 25 cbr 1000 ------- 0 9.0 25.0 4 28
r 0.06272 22 25 cbr 1000 ------- 0 9.0 25.0 2 18
r 0.06344 14 22 cbr 1000 ------- 0 10.0 26.0 4 29
+ 0.06344 22 26 cbr 1000 ------- 0 10.0 26.0 4 29
- 0.06344 22 26 cbr 1000 ------- 0 10.0 26.0 4 29
r 0.06352 22 26 cbr 1000 ------- 0 10.0 26.0 2 19
r 0.06424 14 22 cbr 1000 ------- 0 11.0 27.0 4 30
+ 0.06424 22 27 cbr 1000 ------- 0 11.0 27.0 4 30
- 0.06424 22 27 cbr 1000 ------- 0 11.0 27.0 4 30
r 0.06432 22 27 cbr 1000 ------- 0 11.0 27.0 2 20
r 0.06612 22 23 cbr 1000 ------- 0 7.0 23.0 3 21
r 0.06692 22 24 cbr 1000 ------- 0 8.0 24.0 3 22
r 0.06772 22 25 cbr 1000 ------- 0 9.0 25.0 3 23
r 0.06852 22 26 cbr 1000 ------- 0 10.0 26.0 3 24
r 0.06932 22 27 cbr 1000 ------- 0 11.0 27.0 3 25
r 0.070845 15 14 ack 5000 ------- 0 16.0 0.0 0 31
+ 0.070845 14 13 ack 5000 ------- 0 16.0 0.0 0 31
- 0.070845 14 13 ack 5000 ------- 0 16.0 0.0 0 31
r 0.07112 22 23 cbr 1000 ------- 0 7.0 23.0 4 26
r 0.071245 15 14 ack 5000 ------- 0 17.0 1.0 0 32
+ 0.071245 14 13 ack 5000 ------- 0 17.0 1.0 0 32
r 0.071645 15 14 ack 5000 ------- 0 18.0 2.0 0 33
+ 0.071645 14 13 ack 5000 ------- 0 18.0 2.0 0 33
r 0.07192 22 24 cbr 1000 ------- 0 8.0 24.0 4 27
r 0.072045 15 14 ack 5000 ------- 0 19.0 3.0 0 34
+ 0.072045 14 13 ack 5000 ------- 0 19.0 3.0 0 34
r 0.072445 15 14 ack 5000 ------- 0 20.0 4.0 0 35
+ 0.072445 14 13 ack 5000 ------- 0 20.0 4.0 0 35
r 0.07272 22 25 cbr 1000 ------- 0 9.0 25.0 4 28
r 0.072845 15 14 ack 5000 ------- 0 21.0 5.0 0 36
+ 0.072845 14 13 ack 5000 ------- 0 21.0 5.0 0 36
r 0.07352 22 26 cbr 1000 ------- 0 10.0 26.0 4 29
r 0.07432 22 27 cbr 1000 ------- 0 11.0 27.0 4 30
- 0.074845 14 13 ack 5000 ------- 0 17.0 1.0 0 32
- 0.078845 14 13 ack 5000 ------- 0 18.0 2.0 0 33
- 0.082845 14 13 ack 5000 ------- 0 19.0 3.0 0 34
r 0.084845 14 13 ack 5000 ------- 0 16.0 0.0 0 31
+ 0.084845 13 6 ack 5000 ------- 0 16.0 0.0 0 31
- 0.084845 13 6 ack 5000 ------- 0 16.0 0.0 0 31
- 0.086845 14 13 ack 5000 ------- 0 20.0 4.0 0 35
r 0.088845 14 13 ack 5000 ------- 0 17.0 1.0 0 32
+ 0.088845 13 6 ack 5000 ------- 0 17.0 1.0 0 32
- 0.088845 13 6 ack 5000 ------- 0 17.0 1.0 0 32
- 0.090845 14 13 ack 5000 ------- 0 21.0 5.0 0 36
r 0.092845 14 13 ack 5000 ------- 0 18.0 2.0 0 33
+ 0.092845 13 6 ack 5000 ------- 0 18.0 2.0 0 33
- 0.092845 13 6 ack 5000 ------- 0 18.0 2.0 0 33
r 0.095245 13 6 ack 5000 ------- 0 16.0 0.0 0 31
+ 0.095245 6 0 ack 5000 ------- 0 16.0 0.0 0 31
- 0.095245 6 0 ack 5000 ------- 0 16.0 0.0 0 31
r 0.096845 14 13 ack 5000 ------- 0 19.0 3.0 0 34
+ 0.096845 13 6 ack 5000 ------- 0 19.0 3.0 0 34
- 0.096845 13 6 ack 5000 ------- 0 19.0 3.0 0 34
r 0.099245 13 6 ack 5000 ------- 0 17.0 1.0 0 32
+ 0.099245 6 1 ack 5000 ------- 0 17.0 1.0 0 32
- 0.099245 6 1 ack 5000 ------- 0 17.0 1.0 0 32
r 0.100845 14 13 ack 5000 ------- 0 20.0 4.0 0 35
+ 0.100845 13 6 ack 5000 ------- 0 20.0 4.0 0 35
- 0.100845 13 6 ack 5000 ------- 0 20.0 4.0 0 35
r 0.103245 13 6 ack 5000 ------- 0 18.0 2.0 0 33
+ 0.103245 6 2 ack 5000 ------- 0 18.0 2.0 0 33
- 0.103245 6 2 ack 5000 ------- 0 18.0 2.0 0 33
r 0.104845 14 13 ack 5000 ------- 0 21.0 5.0 0 36
+ 0.104845 13 6 ack 5000 ------- 0 21.0 5.0 0 36
- 0.104845 13 6 ack 5000 ------- 0 21.0 5.0 0 36
r 0.105645 6 0 ack 5000 ------- 0 16.0 0.0 0 31
+ 0.105645 0 6 tcp 5040 ------- 0 0.0 16.0 1 37
- 0.105645 0 6 tcp 5040 ------- 0 0.0 16.0 1 37
+ 0.105645 0 6 tcp 5040 ------- 0 0.0 16.0 2 38
- 0.106048 0 6 tcp 5040 ------- 0 0.0 16.0 2 38
r 0.107245 13 6 ack 5000 ------- 0 19.0 3.0 0 34
+ 0.107245 6 3 ack 5000 ------- 0 19.0 3.0 0 34
- 0.107245 6 3 ack 5000 ------- 0 19.0 3.0 0 34
r 0.109645 6 1 ack 5000 ------- 0 17.0 1.0 0 32
+ 0.109645 1 6 tcp 5040 ------- 0 1.0 17.0 1 39
- 0.109645 1 6 tcp 5040 ------- 0 1.0 17.0 1 39
+ 0.109645 1 6 tcp 5040 ------- 0 1.0 17.0 2 40
- 0.110048 1 6 tcp 5040 ------- 0 1.0 17.0 2 40
r 0.111245 13 6 ack 5000 ------- 0 20.0 4.0 0 35
+ 0.111245 6 4 ack 5000 ------- 0 20.0 4.0 0 35
- 0.111245 6 4 ack 5000 ------- 0 20.0 4.0 0 35
r 0.113645 6 2 ack 5000 ------- 0 18.0 2.0 0 33
+ 0.113645 2 6 tcp 5040 ------- 0 2.0 18.0 1 41
- 0.113645 2 6 tcp 5040 ------- 0 2.0 18.0 1 41
+ 0.113645 2 6 tcp 5040 ------- 0 2.0 18.0 2 42
- 0.114048 2 6 tcp 5040 ------- 0 2.0 18.0 2 42
r 0.115245 13 6 ack 5000 ------- 0 21.0 5.0 0 36
+ 0.115245 6 5 ack 5000 ------- 0 21.0 5.0 0 36
- 0.115245 6 5 ack 5000 ------- 0 21.0 5.0 0 36
r 0.116048 0 6 tcp 5040 ------- 0 0.0 16.0 1 37
+ 0.116048 6 13 tcp 5040 ------- 0 0.0 16.0 1 37
- 0.116048 6 13 tcp 5040 ------- 0 0.0 16.0 1 37
r 0.116451 0 6 tcp 5040 ------- 0 0.0 16.0 2 38
+ 0.116451 6 13 tcp 5040 ------- 0 0.0 16.0 2 38
- 0.116451 6 13 tcp 5040 ------- 0 0.0 16.0 2 38
r 0.117645 6 3 ack 5000 ------- 0 19.0 3.0 0 34
+ 0.117645 3 6 tcp 5040 ------- 0 3.0 19.0 1 43
- 0.117645 3 6 tcp 5040 ------- 0 3.0 19.0 1 43
+ 0.117645 3 6 tcp 5040 ------- 0 3.0 19.0 2 44
- 0.118048 3 6 tcp 5040 ------- 0 3.0 19.0 2 44
r 0.120048 1 6 tcp 5040 ------- 0 1.0 17.0 1 39
+ 0.120048 6 13 tcp 5040 ------- 0 1.0 17.0 1 39
- 0.120048 6 13 tcp 5040 ------- 0 1.0 17.0 1 39
r 0.120451 1 6 tcp 5040 ------- 0 1.0 17.0 2 40
+ 0.120451 6 13 tcp 5040 ------- 0 1.0 17.0 2 40
- 0.120451 6 13 tcp 5040 ------- 0 1.0 17.0 2 40
r 0.121645 6 4 ack 5000 ------- 0 20.0 4.0 0 35
+ 0.121645 4 6 tcp 5040 ------- 0 4.0 20.0 1 45
- 0.121645 4 6 tcp 5040 ------- 0 4.0 20.0 1 45
+ 0.121645 4 6 tcp 5040 ------- 0 4.0 20.0 2 46
- 0.122048 4 6 tcp 5040 ------- 0 4.0 20.0 2 46
r 0.124048 2 6 tcp 5040 ------- 0 2.0 18.0 1 41
+ 0.124048 6 13 tcp 5040 ------- 0 2.0 18.0 1 41
- 0.124048 6 13 tcp 5040 ------- 0 2.0 18.0 1 41
r 0.124451 2 6 tcp 5040 ------- 0 2.0 18.0 2 42
+ 0.124451 6 13 tcp 5040 ------- 0 2.0 18.0 2 42
- 0.124451 6 13 tcp 5040 ------- 0 2.0 18.0 2 42
r 0.125645 6 5 ack 5000 ------- 0 21.0 5.0 0 36
+ 0.125645 5 6 tcp 5040 ------- 0 5.0 21.0 1 47
- 0.125645 5 6 tcp 5040 ------- 0 5.0 21.0 1 47
+ 0.125645 5 6 tcp 5040 ------- 0 5.0 21.0 2 48
- 0.126048 5 6 tcp 5040 ------- 0 5.0 21.0 2 48
r 0.126451 6 13 tcp 5040 ------- 0 0.0 16.0 1 37
+ 0.126451 13 14 tcp 5040 ------- 0 0.0 16.0 1 37
- 0.126451 13 14 tcp 5040 ------- 0 0.0 16.0 1 37
r 0.126854 6 13 tcp 5040 ------- 0 0.0 16.0 2 38
+ 0.126854 13 14 tcp 5040 ------- 0 0.0 16.0 2 38
r 0.128048 3 6 tcp 5040 ------- 0 3.0 19.0 1 43
+ 0.128048 6 13 tcp 5040 ------- 0 3.0 19.0 1 43
- 0.128048 6 13 tcp 5040 ------- 0 3.0 19.0 1 43
r 0.128451 3 6 tcp 5040 ------- 0 3.0 19.0 2 44
+ 0.128451 6 13 tcp 5040 ------- 0 3.0 19.0 2 44
- 0.128451 6 13 tcp 5040 ------- 0 3.0 19.0 2 44
r 0.130451 6 13 tcp 5040 ------- 0 1.0 17.0 1 39
+ 0.130451 13 14 tcp 5040 ------- 0 1.0 17.0 1 39
- 0.130483 13 14 tcp 5040 ------- 0 0.0 16.0 2 38
r 0.130854 6 13 tcp 5040 ------- 0 1.0 17.0 2 40
+ 0.130854 13 14 tcp 5040 ------- 0 1.0 17.0 2 40
r 0.132048 4 6 tcp 5040 ------- 0 4.0 20.0 1 45
+ 0.132048 6 13 tcp 5040 ------- 0 4.0 20.0 1 45
- 0.132048 6 13 tcp 5040 ------- 0 4.0 20.0 1 45
r 0.132451 4 6 tcp 5040 ------- 0 4.0 20.0 2 46
+ 0.132451 6 13 tcp 5040 ------- 0 4.0 20.0 2 46
- 0.132451 6 13 tcp 5040 ------- 0 4.0 20.0 2 46
r 0.134451 6 13 tcp 5040 ------- 0 2.0 18.0 1 41